
Linearized model: Predictions were generated on 02-Feb-2021 at 10:01:31 using OpenFAST, compiled as a 64-bit application using single precision at commit -128-NOTFOUND
 linked with  NWTC Subroutine Library; ElastoDyn; InflowWind; AeroDyn; ServoDyn; HydroDyn; MAP++ (<1.20.10>, <Jan-27-2021>)

Description from the FAST input file: Generated with AeroElasticSE FAST driver

Simulation information:
   Simulation time:                  2333.6500 s
   Rotor Speed:                         0.7920 rad/s
   Azimuth:                             0.0041 rad
   Wind Speed:                         21.0000 m/s
   Number of continuous states:       106
   Number of discrete states:           0
   Number of constraint states:         0
   Number of inputs:                   10
   Number of outputs:                 108
   Jacobians included in this file?    No

Order of continuous states:
   Row/Column Operating Point                     Rotating Frame? Derivative Order Description
   ---------- ---------------                     --------------- ---------------- -----------
          1    1.251E+01                                 F               2         ED Platform horizontal surge translation DOF (internal DOF index = DOF_Sg), m
          2   -4.549E-02                                 F               2         ED Platform vertical heave translation DOF (internal DOF index = DOF_Hv), m
          3    2.655E-02                                 F               2         ED Platform pitch tilt rotation DOF (internal DOF index = DOF_P), rad
          4    6.732E-02                                 F               2         ED 1st tower fore-aft bending mode DOF (internal DOF index = DOF_TFA1), m
          5    4.717E+00                                 F               2         ED Variable speed generator DOF (internal DOF index = DOF_GeAz), rad
          6    3.122E-04                                 F               2         ED First time derivative of Platform horizontal surge translation DOF (internal DOF index = DOF_Sg), m/s
          7   -9.685E-05                                 F               2         ED First time derivative of Platform vertical heave translation DOF (internal DOF index = DOF_Hv), m/s
          8    1.974E-05                                 F               2         ED First time derivative of Platform pitch tilt rotation DOF (internal DOF index = DOF_P), rad/s
          9   -3.661E-03                                 F               2         ED First time derivative of 1st tower fore-aft bending mode DOF (internal DOF index = DOF_TFA1), m/s
         10    7.920E-01                                 F               2         ED First time derivative of Variable speed generator DOF (internal DOF index = DOF_GeAz), rad/s
         11    0.000E+00                                 F               1         HD ExctnPtfmSg1
         12    0.000E+00                                 F               1         HD ExctnPtfmSg2
         13    0.000E+00                                 F               1         HD ExctnPtfmSg3
         14    0.000E+00                                 F               1         HD ExctnPtfmSg4
         15    0.000E+00                                 F               1         HD ExctnPtfmSg5
         16    0.000E+00                                 F               1         HD ExctnPtfmSg6
         17    0.000E+00                                 F               1         HD ExctnPtfmSg7
         18    0.000E+00                                 F               1         HD ExctnPtfmSg8
         19    0.000E+00                                 F               1         HD ExctnPtfmSw1
         20    0.000E+00                                 F               1         HD ExctnPtfmSw2
         21    0.000E+00                                 F               1         HD ExctnPtfmHv1
         22    0.000E+00                                 F               1         HD ExctnPtfmHv2
         23    0.000E+00                                 F               1         HD ExctnPtfmHv3
         24    0.000E+00                                 F               1         HD ExctnPtfmHv4
         25    0.000E+00                                 F               1         HD ExctnPtfmHv5
         26    0.000E+00                                 F               1         HD ExctnPtfmHv6
         27    0.000E+00                                 F               1         HD ExctnPtfmHv7
         28    0.000E+00                                 F               1         HD ExctnPtfmHv8
         29    0.000E+00                                 F               1         HD ExctnPtfmR1
         30    0.000E+00                                 F               1         HD ExctnPtfmR2
         31    0.000E+00                                 F               1         HD ExctnPtfmR3
         32    0.000E+00                                 F               1         HD ExctnPtfmR4
         33    0.000E+00                                 F               1         HD ExctnPtfmR5
         34    0.000E+00                                 F               1         HD ExctnPtfmR6
         35    0.000E+00                                 F               1         HD ExctnPtfmR7
         36    0.000E+00                                 F               1         HD ExctnPtfmR8
         37    0.000E+00                                 F               1         HD ExctnPtfmP1
         38    0.000E+00                                 F               1         HD ExctnPtfmP2
         39    0.000E+00                                 F               1         HD ExctnPtfmP3
         40    0.000E+00                                 F               1         HD ExctnPtfmP4
         41    0.000E+00                                 F               1         HD ExctnPtfmP5
         42    0.000E+00                                 F               1         HD ExctnPtfmP6
         43    0.000E+00                                 F               1         HD ExctnPtfmP7
         44    0.000E+00                                 F               1         HD ExctnPtfmP8
         45    0.000E+00                                 F               1         HD ExctnPtfmY1
         46    0.000E+00                                 F               1         HD ExctnPtfmY2
         47    1.763E-03                                 F               1         HD RdtnPtfmSg1
         48    1.896E-04                                 F               1         HD RdtnPtfmSg2
         49   -3.062E-04                                 F               1         HD RdtnPtfmSg3
         50   -3.348E-05                                 F               1         HD RdtnPtfmSg4
         51    7.072E-05                                 F               1         HD RdtnPtfmSg5
         52    1.360E-04                                 F               1         HD RdtnPtfmSg6
         53   -5.898E-03                                 F               1         HD RdtnPtfmSg7
         54    1.361E-03                                 F               1         HD RdtnPtfmSg8
         55    1.836E-04                                 F               1         HD RdtnPtfmSg9
         56   -2.354E-04                                 F               1         HD RdtnPtfmSg10
         57   -3.221E-05                                 F               1         HD RdtnPtfmSg11
         58    4.093E-05                                 F               1         HD RdtnPtfmSg12
         59    1.788E-04                                 F               1         HD RdtnPtfmSg13
         60   -7.011E-04                                 F               1         HD RdtnPtfmSg14
         61    0.000E+00                                 F               1         HD RdtnPtfmSw1
         62    0.000E+00                                 F               1         HD RdtnPtfmSw2
         63    0.000E+00                                 F               1         HD RdtnPtfmSw3
         64    0.000E+00                                 F               1         HD RdtnPtfmSw4
         65    0.000E+00                                 F               1         HD RdtnPtfmSw5
         66    0.000E+00                                 F               1         HD RdtnPtfmSw6
         67    0.000E+00                                 F               1         HD RdtnPtfmSw7
         68    0.000E+00                                 F               1         HD RdtnPtfmSw8
         69    0.000E+00                                 F               1         HD RdtnPtfmSw9
         70    0.000E+00                                 F               1         HD RdtnPtfmSw10
         71    0.000E+00                                 F               1         HD RdtnPtfmSw11
         72    0.000E+00                                 F               1         HD RdtnPtfmSw12
         73    0.000E+00                                 F               1         HD RdtnPtfmSw13
         74    0.000E+00                                 F               1         HD RdtnPtfmSw14
         75    3.439E-05                                 F               1         HD RdtnPtfmHv1
         76    6.442E-05                                 F               1         HD RdtnPtfmHv2
         77    2.223E-04                                 F               1         HD RdtnPtfmHv3
         78   -5.114E-04                                 F               1         HD RdtnPtfmHv4
         79   -2.436E-03                                 F               1         HD RdtnPtfmHv5
         80    5.371E-03                                 F               1         HD RdtnPtfmHv6
         81    0.000E+00                                 F               1         HD RdtnPtfmR1
         82    0.000E+00                                 F               1         HD RdtnPtfmR2
         83    0.000E+00                                 F               1         HD RdtnPtfmR3
         84    0.000E+00                                 F               1         HD RdtnPtfmR4
         85    0.000E+00                                 F               1         HD RdtnPtfmR5
         86    0.000E+00                                 F               1         HD RdtnPtfmR6
         87    0.000E+00                                 F               1         HD RdtnPtfmR7
         88    0.000E+00                                 F               1         HD RdtnPtfmR8
         89    0.000E+00                                 F               1         HD RdtnPtfmR9
         90    0.000E+00                                 F               1         HD RdtnPtfmR10
         91    8.589E-05                                 F               1         HD RdtnPtfmP1
         92    1.238E-05                                 F               1         HD RdtnPtfmP2
         93   -1.494E-05                                 F               1         HD RdtnPtfmP3
         94   -2.178E-06                                 F               1         HD RdtnPtfmP4
         95    2.578E-06                                 F               1         HD RdtnPtfmP5
         96    5.041E-07                                 F               1         HD RdtnPtfmP6
         97    1.352E-07                                 F               1         HD RdtnPtfmP7
         98    5.588E-05                                 F               1         HD RdtnPtfmP8
         99    4.480E-06                                 F               1         HD RdtnPtfmP9
        100   -9.143E-06                                 F               1         HD RdtnPtfmP10
        101    0.000E+00                                 F               1         HD RdtnPtfmY1
        102    0.000E+00                                 F               1         HD RdtnPtfmY2
        103    0.000E+00                                 F               1         HD RdtnPtfmY3
        104    0.000E+00                                 F               1         HD RdtnPtfmY4
        105    0.000E+00                                 F               1         HD RdtnPtfmY5
        106    0.000E+00                                 F               1         HD RdtnPtfmY6

Order of continuous state derivatives:
   Row/Column Operating Point                     Rotating Frame? Derivative Order Description
   ---------- ---------------                     --------------- ---------------- -----------
          1    3.122E-04                                 F               2         First time derivative of ED Platform horizontal surge translation DOF (internal DOF index = DOF_Sg), m/s
          2   -9.685E-05                                 F               2         First time derivative of ED Platform vertical heave translation DOF (internal DOF index = DOF_Hv), m/s
          3    1.974E-05                                 F               2         First time derivative of ED Platform pitch tilt rotation DOF (internal DOF index = DOF_P), rad/s
          4   -3.661E-03                                 F               2         First time derivative of ED 1st tower fore-aft bending mode DOF (internal DOF index = DOF_TFA1), m/s
          5    7.920E-01                                 F               2         First time derivative of ED Variable speed generator DOF (internal DOF index = DOF_GeAz), rad/s
          6   -5.156E-03                                 F               2         First time derivative of ED First time derivative of Platform horizontal surge translation DOF (internal DOF index = DOF_Sg), m/s/s
          7   -5.163E-04                                 F               2         First time derivative of ED First time derivative of Platform vertical heave translation DOF (internal DOF index = DOF_Hv), m/s/s
          8   -3.237E-04                                 F               2         First time derivative of ED First time derivative of Platform pitch tilt rotation DOF (internal DOF index = DOF_P), rad/s/s
          9    9.590E-02                                 F               2         First time derivative of ED First time derivative of 1st tower fore-aft bending mode DOF (internal DOF index = DOF_TFA1), m/s/s
         10    1.233E-03                                 F               2         First time derivative of ED First time derivative of Variable speed generator DOF (internal DOF index = DOF_GeAz), rad/s/s
         11    0.000E+00                                 F               1         First time derivative of HD ExctnPtfmSg1/s
         12    0.000E+00                                 F               1         First time derivative of HD ExctnPtfmSg2/s
         13    0.000E+00                                 F               1         First time derivative of HD ExctnPtfmSg3/s
         14    0.000E+00                                 F               1         First time derivative of HD ExctnPtfmSg4/s
         15    0.000E+00                                 F               1         First time derivative of HD ExctnPtfmSg5/s
         16    0.000E+00                                 F               1         First time derivative of HD ExctnPtfmSg6/s
         17    0.000E+00                                 F               1         First time derivative of HD ExctnPtfmSg7/s
         18    0.000E+00                                 F               1         First time derivative of HD ExctnPtfmSg8/s
         19    0.000E+00                                 F               1         First time derivative of HD ExctnPtfmSw1/s
         20    0.000E+00                                 F               1         First time derivative of HD ExctnPtfmSw2/s
         21    0.000E+00                                 F               1         First time derivative of HD ExctnPtfmHv1/s
         22    0.000E+00                                 F               1         First time derivative of HD ExctnPtfmHv2/s
         23    0.000E+00                                 F               1         First time derivative of HD ExctnPtfmHv3/s
         24    0.000E+00                                 F               1         First time derivative of HD ExctnPtfmHv4/s
         25    0.000E+00                                 F               1         First time derivative of HD ExctnPtfmHv5/s
         26    0.000E+00                                 F               1         First time derivative of HD ExctnPtfmHv6/s
         27    0.000E+00                                 F               1         First time derivative of HD ExctnPtfmHv7/s
         28    0.000E+00                                 F               1         First time derivative of HD ExctnPtfmHv8/s
         29    0.000E+00                                 F               1         First time derivative of HD ExctnPtfmR1/s
         30    0.000E+00                                 F               1         First time derivative of HD ExctnPtfmR2/s
         31    0.000E+00                                 F               1         First time derivative of HD ExctnPtfmR3/s
         32    0.000E+00                                 F               1         First time derivative of HD ExctnPtfmR4/s
         33    0.000E+00                                 F               1         First time derivative of HD ExctnPtfmR5/s
         34    0.000E+00                                 F               1         First time derivative of HD ExctnPtfmR6/s
         35    0.000E+00                                 F               1         First time derivative of HD ExctnPtfmR7/s
         36    0.000E+00                                 F               1         First time derivative of HD ExctnPtfmR8/s
         37    0.000E+00                                 F               1         First time derivative of HD ExctnPtfmP1/s
         38    0.000E+00                                 F               1         First time derivative of HD ExctnPtfmP2/s
         39    0.000E+00                                 F               1         First time derivative of HD ExctnPtfmP3/s
         40    0.000E+00                                 F               1         First time derivative of HD ExctnPtfmP4/s
         41    0.000E+00                                 F               1         First time derivative of HD ExctnPtfmP5/s
         42    0.000E+00                                 F               1         First time derivative of HD ExctnPtfmP6/s
         43    0.000E+00                                 F               1         First time derivative of HD ExctnPtfmP7/s
         44    0.000E+00                                 F               1         First time derivative of HD ExctnPtfmP8/s
         45    0.000E+00                                 F               1         First time derivative of HD ExctnPtfmY1/s
         46    0.000E+00                                 F               1         First time derivative of HD ExctnPtfmY2/s
         47   -1.150E-03                                 F               1         First time derivative of HD RdtnPtfmSg1/s
         48    1.763E-03                                 F               1         First time derivative of HD RdtnPtfmSg2/s
         49    1.896E-04                                 F               1         First time derivative of HD RdtnPtfmSg3/s
         50   -3.062E-04                                 F               1         First time derivative of HD RdtnPtfmSg4/s
         51   -3.348E-05                                 F               1         First time derivative of HD RdtnPtfmSg5/s
         52    7.072E-05                                 F               1         First time derivative of HD RdtnPtfmSg6/s
         53    1.360E-04                                 F               1         First time derivative of HD RdtnPtfmSg7/s
         54   -1.119E-03                                 F               1         First time derivative of HD RdtnPtfmSg8/s
         55    1.361E-03                                 F               1         First time derivative of HD RdtnPtfmSg9/s
         56    1.836E-04                                 F               1         First time derivative of HD RdtnPtfmSg10/s
         57   -2.354E-04                                 F               1         First time derivative of HD RdtnPtfmSg11/s
         58   -3.221E-05                                 F               1         First time derivative of HD RdtnPtfmSg12/s
         59    4.093E-05                                 F               1         First time derivative of HD RdtnPtfmSg13/s
         60    1.788E-04                                 F               1         First time derivative of HD RdtnPtfmSg14/s
         61    0.000E+00                                 F               1         First time derivative of HD RdtnPtfmSw1/s
         62    0.000E+00                                 F               1         First time derivative of HD RdtnPtfmSw2/s
         63    0.000E+00                                 F               1         First time derivative of HD RdtnPtfmSw3/s
         64    0.000E+00                                 F               1         First time derivative of HD RdtnPtfmSw4/s
         65    0.000E+00                                 F               1         First time derivative of HD RdtnPtfmSw5/s
         66    0.000E+00                                 F               1         First time derivative of HD RdtnPtfmSw6/s
         67    0.000E+00                                 F               1         First time derivative of HD RdtnPtfmSw7/s
         68    0.000E+00                                 F               1         First time derivative of HD RdtnPtfmSw8/s
         69    0.000E+00                                 F               1         First time derivative of HD RdtnPtfmSw9/s
         70    0.000E+00                                 F               1         First time derivative of HD RdtnPtfmSw10/s
         71    0.000E+00                                 F               1         First time derivative of HD RdtnPtfmSw11/s
         72    0.000E+00                                 F               1         First time derivative of HD RdtnPtfmSw12/s
         73    0.000E+00                                 F               1         First time derivative of HD RdtnPtfmSw13/s
         74    0.000E+00                                 F               1         First time derivative of HD RdtnPtfmSw14/s
         75   -9.413E-05                                 F               1         First time derivative of HD RdtnPtfmHv1/s
         76    3.439E-05                                 F               1         First time derivative of HD RdtnPtfmHv2/s
         77    6.442E-05                                 F               1         First time derivative of HD RdtnPtfmHv3/s
         78    2.223E-04                                 F               1         First time derivative of HD RdtnPtfmHv4/s
         79   -5.114E-04                                 F               1         First time derivative of HD RdtnPtfmHv5/s
         80   -2.436E-03                                 F               1         First time derivative of HD RdtnPtfmHv6/s
         81    0.000E+00                                 F               1         First time derivative of HD RdtnPtfmR1/s
         82    0.000E+00                                 F               1         First time derivative of HD RdtnPtfmR2/s
         83    0.000E+00                                 F               1         First time derivative of HD RdtnPtfmR3/s
         84    0.000E+00                                 F               1         First time derivative of HD RdtnPtfmR4/s
         85    0.000E+00                                 F               1         First time derivative of HD RdtnPtfmR5/s
         86    0.000E+00                                 F               1         First time derivative of HD RdtnPtfmR6/s
         87    0.000E+00                                 F               1         First time derivative of HD RdtnPtfmR7/s
         88    0.000E+00                                 F               1         First time derivative of HD RdtnPtfmR8/s
         89    0.000E+00                                 F               1         First time derivative of HD RdtnPtfmR9/s
         90    0.000E+00                                 F               1         First time derivative of HD RdtnPtfmR10/s
         91   -7.403E-05                                 F               1         First time derivative of HD RdtnPtfmP1/s
         92    8.589E-05                                 F               1         First time derivative of HD RdtnPtfmP2/s
         93    1.238E-05                                 F               1         First time derivative of HD RdtnPtfmP3/s
         94   -1.494E-05                                 F               1         First time derivative of HD RdtnPtfmP4/s
         95   -2.178E-06                                 F               1         First time derivative of HD RdtnPtfmP5/s
         96    2.578E-06                                 F               1         First time derivative of HD RdtnPtfmP6/s
         97    5.041E-07                                 F               1         First time derivative of HD RdtnPtfmP7/s
         98   -2.838E-05                                 F               1         First time derivative of HD RdtnPtfmP8/s
         99    5.588E-05                                 F               1         First time derivative of HD RdtnPtfmP9/s
        100    4.480E-06                                 F               1         First time derivative of HD RdtnPtfmP10/s
        101    0.000E+00                                 F               1         First time derivative of HD RdtnPtfmY1/s
        102    0.000E+00                                 F               1         First time derivative of HD RdtnPtfmY2/s
        103    0.000E+00                                 F               1         First time derivative of HD RdtnPtfmY3/s
        104    0.000E+00                                 F               1         First time derivative of HD RdtnPtfmY4/s
        105    0.000E+00                                 F               1         First time derivative of HD RdtnPtfmY5/s
        106    0.000E+00                                 F               1         First time derivative of HD RdtnPtfmY6/s

Order of inputs:
     Column   Operating Point                     Rotating Frame? Derivative Order Description
   ---------- ---------------                     --------------- ---------------- -----------
          1    2.100E+01                                 F               0         IfW Extended input: horizontal wind speed (steady/uniform wind), m/s
          2    1.200E-01                                 F               0         IfW Extended input: vertical power-law shear exponent, -
          3    0.000E+00                                 F               0         IfW Extended input: propagation direction, rad
          4    3.259E-01                                 T               0         ED Blade 1 pitch command, rad
          5    3.259E-01                                 T               0         ED Blade 2 pitch command, rad
          6    3.259E-01                                 T               0         ED Blade 3 pitch command, rad
          7    0.000E+00                                 F               0         ED Yaw moment, Nm
          8    1.962E+07                                 F               0         ED Generator torque, Nm
          9    3.259E-01                                 F               0         ED Extended input: collective blade-pitch command, rad
         10    0.000E+00                                 F               0         HD Extended input: wave elevation at platform ref point, m

Order of outputs:
        Row   Operating Point                     Rotating Frame? Derivative Order Description
   ---------- ---------------                     --------------- ---------------- -----------
          1    2.100E+01                                 F               0         IfW Wind1VelX, (m/s)
          2    0.000E+00                                 F               0         IfW Wind1VelY, (m/s)
          3    0.000E+00                                 F               0         IfW Wind1VelZ, (m/s)
          4    1.500E+04                                 F               0         SrvD GenPwr, (kW)
          5    1.962E+04                                 F               0         SrvD GenTq, (kN-m)
          6    2.362E-01                                 F               0         ED Azimuth, (deg)
          7    1.867E+01                                 T               0         ED BldPitch1, (deg)
          8    7.563E+00                                 F               0         ED GenSpeed, (rpm)
          9    3.255E-01                                 T               0         ED IPDefl1, (m)
         10    8.278E+03                                 F               0         ED LSSGagMya, (kN-m)
         11   -4.134E+03                                 F               0         ED LSSGagMza, (kN-m)
         12    8.278E+03                                 F               0         ED LSSTipMya, (kN-m)
         13    8.295E+03                                 F               0         ED LSSTipMys, (kN-m)
         14   -4.134E+03                                 F               0         ED LSSTipMza, (kN-m)
         15   -4.099E+03                                 F               0         ED LSSTipMzs, (kN-m)
         16   -9.370E+01                                 F               0         ED LSShftFys, (kN)
         17   -3.701E+03                                 F               0         ED LSShftFzs, (kN)
         18    0.000E+00                                 F               0         ED NacYaw, (deg)